LAMMPS Description

8731  atoms
1380  bonds
2250  angles
3330  dihedrals
390  impropers

21  atom types
22  bond types
40  angle types
63  dihedral types
9  improper types

0.0    62.14 xlo xhi
0.0    65.10 ylo yhi
0.0    100 zlo zhi

Masses

1 16.000000  # Oal
2 26.980000  # Al3
3 63.550000  # Cu3+1
4 16.000  # oh
5 12.010  # c
6 12.010  # c3
7 14.010  # n
8 12.010  # cc
9 16.000  # o
10 14.010  # n3
11 12.010  # ca
12 14.010  # na
13 12.010  # cd
14 1.008  # ho
15 1.008  # hc
16 1.008  # h1
17 1.008  # hn
18 1.008  # h4
19 1.008  # ha
20 15.9994  # O
21 1.008  # H

Atoms

1 1 1 0.000000 2.601 3.537 8.804
2 1 1 0.000000 4.985 3.544 12.923
3 1 1 0.000000 2.610 3.547 17.047
4 1 1 0.000000 4.975 7.867 7.422
5 1 1 0.000000 2.600 7.870 11.547
6 1 1 0.000000 4.985 7.878 15.665
7 1 1 0.000000 2.609 7.881 19.789
8 1 1 0.000000 2.590 12.193 6.045
9 1 1 0.000000 4.974 12.201 10.165
10 1 1 0.000000 2.599 12.204 14.288
11 1 1 0.000000 4.984 12.211 18.408
12 1 1 0.000000 4.784 3.537 7.541
13 1 1 0.000000 2.409 3.540 11.665
14 1 1 0.000000 4.794 3.548 15.784
15 1 1 0.000000 2.418 3.551 19.908
16 1 1 0.000000 2.399 7.863 6.164
17 1 1 0.000000 4.783 7.871 10.282
18 1 1 0.000000 2.408 7.874 14.407
19 1 1 0.000000 4.793 7.881 18.525
20 1 1 0.000000 2.398 12.197 8.907
21 1 1 0.000000 4.783 12.204 13.025
22 1 1 0.000000 2.407 12.207 17.149
23 1 1 0.000000 2.598 3.534 6.282
24 1 1 0.000000 4.983 3.541 10.401
25 1 1 0.000000 2.607 3.544 14.525
26 1 1 0.000000 4.992 3.552 18.644
27 1 1 0.000000 2.597 7.867 9.024
28 1 1 0.000000 4.982 7.875 13.143
29 1 1 0.000000 2.606 7.878 17.267
30 1 1 0.000000 4.971 12.198 7.642
31 1 1 0.000000 2.596 12.201 11.766
32 1 1 0.000000 4.981 12.208 15.885
33 1 1 0.000000 4.049 10.030 6.272
34 1 1 0.000000 1.674 10.033 10.396
35 1 1 0.000000 4.058 10.040 14.515
36 1 1 0.000000 1.683 10.043 18.639
37 1 1 0.000000 4.060 1.373 9.030
38 1 1 0.000000 1.685 1.376 13.155
39 1 1 0.000000 4.069 1.384 17.273
40 1 1 0.000000 1.674 5.699 7.654
41 1 1 0.000000 4.059 5.707 11.773
42 1 1 0.000000 1.684 5.710 15.897
43 1 1 0.000000 1.865 10.030 7.536
44 1 1 0.000000 4.250 10.037 11.654
45 1 1 0.000000 1.875 10.040 15.779
46 1 1 0.000000 4.259 10.047 19.897
47 1 1 0.000000 4.252 1.370 6.170
48 1 1 0.000000 1.877 1.373 10.294
49 1 1 0.000000 4.261 1.380 14.413
50 1 1 0.000000 1.886 1.384 18.537
51 1 1 0.000000 4.251 5.703 8.913
52 1 1 0.000000 1.876 5.707 13.036
53 1 1 0.000000 4.260 5.714 17.155
54 1 1 0.000000 4.052 10.033 8.794
55 1 1 0.000000 1.676 10.036 12.918
56 1 1 0.000000 4.061 10.044 17.037
57 1 1 0.000000 1.678 1.369 7.434
58 1 1 0.000000 4.063 1.377 11.553
59 1 1 0.000000 1.688 1.380 15.677
60 1 1 0.000000 4.072 1.387 19.795
61 1 1 0.000000 4.053 5.700 6.052
62 1 1 0.000000 1.677 5.703 10.177
63 1 1 0.000000 4.062 5.710 14.295
64 1 1 0.000000 1.687 5.713 18.420
65 1 2 0.000000 3.326 4.861 7.541
66 1 2 0.000000 0.952 4.864 11.665
67 1 2 0.000000 3.337 4.871 15.784
68 1 2 0.000000 0.961 4.874 19.908
69 1 2 0.000000 0.942 9.187 6.164
70 1 2 0.000000 3.325 9.194 10.282
71 1 2 0.000000 0.951 9.197 14.407
72 1 2 0.000000 3.336 9.205 18.525
73 1 2 0.000000 0.953 0.529 8.923
74 1 2 0.000000 3.336 0.537 13.041
75 1 2 0.000000 0.962 0.540 17.165
76 1 2 0.000000 3.329 2.211 7.544
77 1 2 0.000000 0.954 2.214 11.668
78 1 2 0.000000 3.339 2.221 15.787
79 1 2 0.000000 0.964 2.224 19.911
80 1 2 0.000000 0.944 6.537 6.167
81 1 2 0.000000 3.328 6.544 10.286
82 1 2 0.000000 0.953 6.547 14.410
83 1 2 0.000000 3.338 6.555 18.529
84 1 2 0.000000 0.943 10.870 8.910
85 1 2 0.000000 3.327 10.878 13.028
86 1 2 0.000000 0.952 10.881 17.152
87 1 2 0.000000 3.323 8.706 7.536
88 1 2 0.000000 0.948 8.709 11.660
89 1 2 0.000000 3.333 8.716 15.779
90 1 2 0.000000 0.958 8.719 19.903
91 1 2 0.000000 0.938 13.033 6.159
92 1 2 0.000000 3.322 13.040 10.277
93 1 2 0.000000 0.947 13.043 14.402
94 1 2 0.000000 3.332 13.051 18.520
95 1 2 0.000000 0.949 4.375 8.918
96 1 2 0.000000 3.333 4.383 13.036
97 1 2 0.000000 0.959 4.386 17.160
98 1 2 0.000000 3.320 11.356 7.533
99 1 2 0.000000 0.946 11.359 11.656
100 1 2 0.000000 3.330 11.366 15.776
101 1 2 0.000000 0.955 11.369 19.899
102 1 2 0.000000 0.948 2.692 6.172
103 1 2 0.000000 3.331 2.699 10.291
104 1 2 0.000000 0.957 2.702 14.415
105 1 2 0.000000 3.342 2.710 18.534
106 1 2 0.000000 0.947 7.025 8.915
107 1 2 0.000000 3.330 7.033 13.033
108 1 2 0.000000 0.956 7.036 17.157
109 1 1 0.000000 7.360 3.541 8.799
110 1 1 0.000000 9.744 3.549 12.917
111 1 1 0.000000 7.369 3.552 17.042
112 1 1 0.000000 9.734 7.872 7.417
113 1 1 0.000000 7.359 7.875 11.541
114 1 1 0.000000 9.744 7.882 15.660
115 1 1 0.000000 7.368 7.885 19.783
116 1 1 0.000000 7.349 12.198 6.040
117 1 1 0.000000 9.733 12.205 10.159
118 1 1 0.000000 7.358 12.208 14.283
119 1 1 0.000000 9.743 12.216 18.402
120 1 1 0.000000 9.543 3.542 7.536
121 1 1 0.000000 7.168 3.545 11.659
122 1 1 0.000000 9.553 3.552 15.778
123 1 1 0.000000 7.177 3.555 19.902
124 1 1 0.000000 7.158 7.868 6.159
125 1 1 0.000000 9.542 7.875 10.277
126 1 1 0.000000 7.167 7.878 14.402
127 1 1 0.000000 9.552 7.886 18.520
128 1 1 0.000000 7.157 12.201 8.901
129 1 1 0.000000 9.542 12.209 13.019
130 1 1 0.000000 7.166 12.212 17.143
131 1 1 0.000000 7.357 3.538 6.277
132 1 1 0.000000 9.742 3.545 10.395
133 1 1 0.000000 7.366 3.549 14.520
134 1 1 0.000000 9.751 3.556 18.638
135 1 1 0.000000 7.356 7.872 9.018
136 1 1 0.000000 9.741 7.879 13.138
137 1 1 0.000000 7.365 7.882 17.261
138 1 1 0.000000 9.730 12.202 7.636
139 1 1 0.000000 7.355 12.205 11.761
140 1 1 0.000000 9.740 12.212 15.879
141 1 1 0.000000 8.808 10.034 6.267
142 1 1 0.000000 6.433 10.037 10.391
143 1 1 0.000000 8.817 10.045 14.510
144 1 1 0.000000 6.442 10.048 18.634
145 1 1 0.000000 8.819 1.378 9.025
146 1 1 0.000000 6.444 1.381 13.150
147 1 1 0.000000 8.828 1.388 17.268
148 1 1 0.000000 6.433 5.704 7.648
149 1 1 0.000000 8.818 5.711 11.768
150 1 1 0.000000 6.443 5.714 15.891
151 1 1 0.000000 6.624 10.034 7.531
152 1 1 0.000000 9.009 10.041 11.649
153 1 1 0.000000 6.634 10.044 15.774
154 1 1 0.000000 9.018 10.052 19.892
155 1 1 0.000000 9.011 1.374 6.165
156 1 1 0.000000 6.636 1.377 10.289
157 1 1 0.000000 9.020 1.385 14.408
158 1 1 0.000000 6.645 1.388 18.532
159 1 1 0.000000 9.010 5.708 8.907
160 1 1 0.000000 6.635 5.711 13.031
161 1 1 0.000000 9.019 5.718 17.149
162 1 1 0.000000 8.811 10.038 8.789
163 1 1 0.000000 6.435 10.041 12.913
164 1 1 0.000000 8.820 10.048 17.032
165 1 1 0.000000 6.437 1.374 7.429
166 1 1 0.000000 8.822 1.381 11.548
167 1 1 0.000000 6.447 1.384 15.672
168 1 1 0.000000 8.831 1.392 19.790
169 1 1 0.000000 8.812 5.704 6.047
170 1 1 0.000000 6.436 5.707 10.171
171 1 1 0.000000 8.821 5.715 14.290
172 1 1 0.000000 6.446 5.718 18.414
173 1 2 0.000000 8.085 4.865 7.535
174 1 2 0.000000 5.711 4.868 11.659
175 1 2 0.000000 8.095 4.876 15.778
176 1 2 0.000000 5.720 4.879 19.902
177 1 2 0.000000 5.701 9.191 6.159
178 1 2 0.000000 8.084 9.199 10.277
179 1 2 0.000000 5.710 9.202 14.402
180 1 2 0.000000 8.094 9.209 18.520
181 1 2 0.000000 5.712 0.534 8.918
182 1 2 0.000000 8.095 0.541 13.036
183 1 2 0.000000 5.721 0.544 17.160
184 1 2 0.000000 8.088 2.215 7.539
185 1 2 0.000000 5.713 2.218 11.663
186 1 2 0.000000 8.097 2.226 15.782
187 1 2 0.000000 5.723 2.229 19.906
188 1 2 0.000000 5.703 6.541 6.162
189 1 2 0.000000 8.087 6.549 10.280
190 1 2 0.000000 5.712 6.552 14.405
191 1 2 0.000000 8.096 6.559 18.523
192 1 2 0.000000 5.702 10.875 8.905
193 1 2 0.000000 8.086 10.882 13.023
194 1 2 0.000000 5.711 10.885 17.147
195 1 2 0.000000 8.082 8.710 7.531
196 1 2 0.000000 5.707 8.713 11.654
197 1 2 0.000000 8.091 8.721 15.774
198 1 2 0.000000 5.717 8.724 19.897
199 1 2 0.000000 5.697 13.037 6.154
200 1 2 0.000000 8.081 13.045 10.272
201 1 2 0.000000 5.706 13.048 14.397
202 1 2 0.000000 8.090 13.055 18.515
203 1 2 0.000000 5.708 4.380 8.913
204 1 2 0.000000 8.092 4.387 13.031
205 1 2 0.000000 5.718 4.390 17.155
206 1 2 0.000000 8.079 11.360 7.527
207 1 2 0.000000 5.705 11.363 11.651
208 1 2 0.000000 8.088 11.371 15.770
209 1 2 0.000000 5.714 11.374 19.894
210 1 2 0.000000 5.707 2.696 6.167
211 1 2 0.000000 8.090 2.704 10.285
212 1 2 0.000000 5.716 2.707 14.410
213 1 2 0.000000 8.100 2.714 18.528
214 1 2 0.000000 5.706 7.030 8.909
215 1 2 0.000000 8.089 7.037 13.028
216 1 2 0.000000 5.715 7.040 17.151
217 1 1 0.000000 12.119 3.546 8.794
218 1 1 0.000000 14.503 3.553 12.912
219 1 1 0.000000 12.128 3.556 17.037
220 1 1 0.000000 14.493 7.876 7.411
221 1 1 0.000000 12.118 7.879 11.536
222 1 1 0.000000 14.503 7.887 15.654
223 1 1 0.000000 12.127 7.890 19.778
224 1 1 0.000000 12.108 12.202 6.035
225 1 1 0.000000 14.492 12.210 10.154
226 1 1 0.000000 12.117 12.213 14.278
227 1 1 0.000000 14.502 12.220 18.397
228 1 1 0.000000 14.302 3.546 7.530
229 1 1 0.000000 11.927 3.549 11.654
230 1 1 0.000000 14.312 3.557 15.773
231 1 1 0.000000 11.936 3.560 19.897
232 1 1 0.000000 11.917 7.872 6.153
233 1 1 0.000000 14.301 7.880 10.272
234 1 1 0.000000 11.926 7.883 14.396
235 1 1 0.000000 14.311 7.890 18.515
236 1 1 0.000000 11.916 12.206 8.896
237 1 1 0.000000 14.301 12.213 13.014
238 1 1 0.000000 11.925 12.216 17.138
239 1 1 0.000000 12.116 3.542 6.272
240 1 1 0.000000 14.501 3.550 10.390
241 1 1 0.000000 12.125 3.553 14.515
242 1 1 0.000000 14.510 3.560 18.633
243 1 1 0.000000 12.115 7.876 9.013
244 1 1 0.000000 14.500 7.883 13.132
245 1 1 0.000000 12.124 7.886 17.256
246 1 1 0.000000 14.489 12.206 7.631
247 1 1 0.000000 12.114 12.209 11.756
248 1 1 0.000000 14.499 12.217 15.874
249 1 1 0.000000 13.567 10.039 6.262
250 1 1 0.000000 11.192 10.042 10.385
251 1 1 0.000000 13.576 10.049 14.505
252 1 1 0.000000 11.201 10.052 18.628
253 1 1 0.000000 13.578 1.382 9.020
254 1 1 0.000000 11.203 1.385 13.144
255 1 1 0.000000 13.587 1.393 17.263
256 1 1 0.000000 11.192 5.708 7.643
257 1 1 0.000000 13.577 5.716 11.762
258 1 1 0.000000 11.202 5.719 15.886
259 1 1 0.000000 11.383 10.038 7.525
260 1 1 0.000000 13.768 10.046 11.643
261 1 1 0.000000 11.393 10.049 15.768
262 1 1 0.000000 13.777 10.056 19.886
263 1 1 0.000000 13.770 1.379 6.159
264 1 1 0.000000 11.395 1.382 10.283
265 1 1 0.000000 13.779 1.389 14.402
266 1 1 0.000000 11.404 1.392 18.526
267 1 1 0.000000 13.769 5.712 8.902
268 1 1 0.000000 11.394 5.715 13.026
269 1 1 0.000000 13.778 5.723 17.144
270 1 1 0.000000 13.570 10.042 8.784
271 1 1 0.000000 11.194 10.045 12.907
272 1 1 0.000000 13.579 10.052 17.027
273 1 1 0.000000 11.196 1.378 7.423
274 1 1 0.000000 13.581 1.386 11.543
275 1 1 0.000000 11.206 1.389 15.666
276 1 1 0.000000 13.590 1.396 19.785
277 1 1 0.000000 13.571 5.709 6.041
278 1 1 0.000000 11.195 5.712 10.166
279 1 1 0.000000 13.580 5.719 14.284
280 1 1 0.000000 11.205 5.722 18.409
281 1 2 0.000000 12.844 4.870 7.530
282 1 2 0.000000 10.470 4.873 11.654
283 1 2 0.000000 12.853 4.880 15.773
284 1 2 0.000000 10.479 4.883 19.897
285 1 2 0.000000 10.460 9.196 6.153
286 1 2 0.000000 12.843 9.203 10.272
287 1 2 0.000000 10.469 9.206 14.396
288 1 2 0.000000 12.853 9.214 18.515
289 1 2 0.000000 10.471 0.538 8.912
290 1 2 0.000000 12.854 0.546 13.031
291 1 2 0.000000 10.480 0.549 17.154
292 1 2 0.000000 12.847 2.220 7.533
293 1 2 0.000000 10.472 2.223 11.657
294 1 2 0.000000 12.856 2.230 15.776
295 1 2 0.000000 10.482 2.233 19.900
296 1 2 0.000000 10.462 6.546 6.157
297 1 2 0.000000 12.846 6.553 10.275
298 1 2 0.000000 10.471 6.556 14.400
299 1 2 0.000000 12.855 6.564 18.518
300 1 2 0.000000 10.461 10.879 8.899
301 1 2 0.000000 12.845 10.887 13.017
302 1 2 0.000000 10.470 10.890 17.141
303 1 2 0.000000 12.841 8.715 7.525
304 1 2 0.000000 10.466 8.718 11.649
305 1 2 0.000000 12.850 8.725 15.768
306 1 2 0.000000 10.476 8.728 19.892
307 1 2 0.000000 10.456 13.042 6.148
308 1 2 0.000000 12.840 13.049 10.267
309 1 2 0.000000 10.465 13.052 14.391
310 1 2 0.000000 12.849 13.060 18.510
311 1 2 0.000000 10.467 4.384 8.907
312 1 2 0.000000 12.851 4.392 13.026
313 1 2 0.000000 10.477 4.395 17.149
314 1 2 0.000000 12.838 11.365 7.522
315 1 2 0.000000 10.464 11.368 11.646
316 1 2 0.000000 12.847 11.375 15.765
317 1 2 0.000000 10.473 11.378 19.888
318 1 2 0.000000 10.466 2.701 6.162
319 1 2 0.000000 12.849 2.708 10.280
320 1 2 0.000000 10.475 2.711 14.405
321 1 2 0.000000 12.859 2.719 18.523
322 1 2 0.000000 10.465 7.034 8.904
323 1 2 0.000000 12.848 7.042 13.022
324 1 2 0.000000 10.474 7.045 17.146
325 1 1 0.000000 16.878 3.550 8.788
326 1 1 0.000000 19.262 3.558 12.906
327 1 1 0.000000 16.887 3.561 17.031
328 1 1 0.000000 19.252 7.881 7.406
329 1 1 0.000000 16.877 7.884 11.531
330 1 1 0.000000 19.262 7.891 15.649
331 1 1 0.000000 16.886 7.894 19.773
332 1 1 0.000000 16.867 12.207 6.029
333 1 1 0.000000 19.251 12.214 10.148
334 1 1 0.000000 16.876 12.217 14.272
335 1 1 0.000000 19.261 12.225 18.391
336 1 1 0.000000 19.061 3.551 7.525
337 1 1 0.000000 16.686 3.554 11.648
338 1 1 0.000000 19.071 3.561 15.768
339 1 1 0.000000 16.695 3.564 19.891
340 1 1 0.000000 16.676 7.877 6.148
341 1 1 0.000000 19.060 7.884 10.266
342 1 1 0.000000 16.685 7.887 14.391
343 1 1 0.000000 19.070 7.894 18.509
344 1 1 0.000000 16.675 12.210 8.890
345 1 1 0.000000 19.060 12.217 13.009
346 1 1 0.000000 16.684 12.221 17.132
347 1 1 0.000000 16.875 3.547 6.266
348 1 1 0.000000 19.260 3.554 10.384
349 1 1 0.000000 16.884 3.557 14.509
350 1 1 0.000000 19.269 3.565 18.627
351 1 1 0.000000 16.874 7.880 9.008
352 1 1 0.000000 19.259 7.888 13.127
353 1 1 0.000000 16.883 7.891 17.251
354 1 1 0.000000 19.248 12.211 7.625
355 1 1 0.000000 16.873 12.214 11.750
356 1 1 0.000000 19.258 12.221 15.868
357 1 1 0.000000 18.326 10.043 6.256
358 1 1 0.000000 15.951 10.046 10.380
359 1 1 0.000000 18.335 10.054 14.499
360 1 1 0.000000 15.960 10.057 18.623
361 1 1 0.000000 18.337 1.387 9.014
362 1 1 0.000000 15.962 1.390 13.139
363 1 1 0.000000 18.346 1.397 17.257
364 1 1 0.000000 15.951 5.713 7.637
365 1 1 0.000000 18.336 5.720 11.757
366 1 1 0.000000 15.961 5.723 15.880
367 1 1 0.000000 16.142 10.043 7.520
368 1 1 0.000000 18.527 10.050 11.638
369 1 1 0.000000 16.152 10.053 15.763
370 1 1 0.000000 18.536 10.061 19.881
371 1 1 0.000000 18.529 1.383 6.154
372 1 1 0.000000 16.154 1.386 10.278
373 1 1 0.000000 18.538 1.394 14.397
374 1 1 0.000000 16.163 1.397 18.521
375 1 1 0.000000 18.528 5.717 8.897
376 1 1 0.000000 16.153 5.720 13.020
377 1 1 0.000000 18.537 5.727 17.139
378 1 1 0.000000 18.329 10.046 8.778
379 1 1 0.000000 15.953 10.049 12.902
380 1 1 0.000000 18.338 10.057 17.021
381 1 1 0.000000 15.955 1.382 7.418
382 1 1 0.000000 18.340 1.390 11.537
383 1 1 0.000000 15.965 1.393 15.661
384 1 1 0.000000 18.349 1.400 19.779
385 1 1 0.000000 18.330 5.713 6.036
386 1 1 0.000000 15.954 5.716 10.160
387 1 1 0.000000 18.339 5.723 14.279
388 1 1 0.000000 15.964 5.726 18.403
389 1 2 0.000000 17.603 4.874 7.525
390 1 2 0.000000 15.229 4.877 11.648
391 1 2 0.000000 17.612 4.885 15.768
392 1 2 0.000000 15.238 4.888 19.891
393 1 2 0.000000 15.219 9.200 6.148
394 1 2 0.000000 17.602 9.208 10.266
395 1 2 0.000000 15.228 9.211 14.391
396 1 2 0.000000 17.612 9.218 18.509
397 1 2 0.000000 15.230 0.543 8.907
398 1 2 0.000000 17.613 0.550 13.025
399 1 2 0.000000 15.239 0.553 17.149
400 1 2 0.000000 17.606 2.224 7.528
401 1 2 0.000000 15.231 2.227 11.652
402 1 2 0.000000 17.615 2.235 15.771
403 1 2 0.000000 15.241 2.238 19.895
404 1 2 0.000000 15.221 6.550 6.151
405 1 2 0.000000 17.605 6.558 10.270
406 1 2 0.000000 15.230 6.561 14.394
407 1 2 0.000000 17.614 6.568 18.513
408 1 2 0.000000 15.220 10.884 8.894
409 1 2 0.000000 17.604 10.891 13.012
410 1 2 0.000000 15.229 10.894 17.136
411 1 2 0.000000 17.600 8.719 7.520
412 1 2 0.000000 15.225 8.722 11.643
413 1 2 0.000000 17.609 8.730 15.763
414 1 2 0.000000 15.235 8.733 19.886
415 1 2 0.000000 15.215 13.046 6.143
416 1 2 0.000000 17.599 13.054 10.261
417 1 2 0.000000 15.224 13.057 14.386
418 1 2 0.000000 17.608 13.064 18.504
419 1 2 0.000000 15.226 4.389 8.902
420 1 2 0.000000 17.610 4.396 13.020
421 1 2 0.000000 15.236 4.399 17.144
422 1 2 0.000000 17.597 11.369 7.516
423 1 2 0.000000 15.223 11.372 11.640
424 1 2 0.000000 17.606 11.380 15.759
425 1 2 0.000000 15.232 11.383 19.883
426 1 2 0.000000 15.225 2.705 6.156
427 1 2 0.000000 17.608 2.713 10.274
428 1 2 0.000000 15.234 2.716 14.399
429 1 2 0.000000 17.618 2.723 18.517
430 1 2 0.000000 15.224 7.039 8.899
431 1 2 0.000000 17.607 7.046 13.017
432 1 2 0.000000 15.233 7.049 17.141
433 1 1 0.000000 21.637 3.554 8.783
434 1 1 0.000000 24.021 3.562 12.901
435 1 1 0.000000 21.646 3.565 17.026
436 1 1 0.000000 24.011 7.885 7.401
437 1 1 0.000000 21.636 7.888 11.525
438 1 1 0.000000 24.021 7.895 15.644
439 1 1 0.000000 21.645 7.898 19.767
440 1 1 0.000000 21.626 12.211 6.024
441 1 1 0.000000 24.010 12.218 10.143
442 1 1 0.000000 21.635 12.221 14.267
443 1 1 0.000000 24.020 12.229 18.386
444 1 1 0.000000 23.820 3.555 7.519
445 1 1 0.000000 21.445 3.558 11.643
446 1 1 0.000000 23.830 3.565 15.762
447 1 1 0.000000 21.454 3.568 19.886
448 1 1 0.000000 21.435 7.881 6.142
449 1 1 0.000000 23.819 7.888 10.261
450 1 1 0.000000 21.444 7.891 14.385
451 1 1 0.000000 23.829 7.899 18.504
452 1 1 0.000000 21.434 12.214 8.885
453 1 1 0.000000 23.819 12.222 13.003
454 1 1 0.000000 21.443 12.225 17.127
455 1 1 0.000000 21.634 3.551 6.261
456 1 1 0.000000 24.019 3.559 10.379
457 1 1 0.000000 21.643 3.562 14.504
458 1 1 0.000000 24.028 3.569 18.622
459 1 1 0.000000 21.633 7.885 9.002
460 1 1 0.000000 24.018 7.892 13.122
461 1 1 0.000000 21.642 7.895 17.245
462 1 1 0.000000 24.007 12.215 7.620
463 1 1 0.000000 21.632 12.218 11.745
464 1 1 0.000000 24.017 12.226 15.863
465 1 1 0.000000 23.085 10.048 6.251
466 1 1 0.000000 20.710 10.051 10.375
467 1 1 0.000000 23.094 10.058 14.494
468 1 1 0.000000 20.719 10.061 18.618
469 1 1 0.000000 23.096 1.391 9.009
470 1 1 0.000000 20.721 1.394 13.134
471 1 1 0.000000 23.105 1.402 17.252
472 1 1 0.000000 20.710 5.717 7.632
473 1 1 0.000000 23.095 5.725 11.751
474 1 1 0.000000 20.720 5.728 15.875
475 1 1 0.000000 20.901 10.047 7.514
476 1 1 0.000000 23.286 10.055 11.633
477 1 1 0.000000 20.911 10.058 15.757
478 1 1 0.000000 23.295 10.065 19.876
479 1 1 0.000000 23.288 1.388 6.149
480 1 1 0.000000 20.912 1.391 10.272
481 1 1 0.000000 23.297 1.398 14.392
482 1 1 0.000000 20.922 1.401 18.515
483 1 1 0.000000 23.287 5.721 8.891
484 1 1 0.000000 20.912 5.724 13.015
485 1 1 0.000000 23.296 5.732 17.133
486 1 1 0.000000 23.088 10.051 8.773
487 1 1 0.000000 20.712 10.054 12.897
488 1 1 0.000000 23.097 10.061 17.016
489 1 1 0.000000 20.714 1.387 7.413
490 1 1 0.000000 23.099 1.394 11.532
491 1 1 0.000000 20.724 1.397 15.656
492 1 1 0.000000 23.108 1.405 19.774
493 1 1 0.000000 23.089 5.717 6.030
494 1 1 0.000000 20.713 5.720 10.155
495 1 1 0.000000 23.098 5.728 14.273
496 1 1 0.000000 20.723 5.731 18.398
497 1 2 0.000000 22.362 4.879 7.519
498 1 2 0.000000 19.988 4.882 11.643
499 1 2 0.000000 22.371 4.889 15.762
500 1 2 0.000000 19.997 4.892 19.886
501 1 2 0.000000 19.978 9.205 6.142
502 1 2 0.000000 22.361 9.212 10.261
503 1 2 0.000000 19.987 9.215 14.385
504 1 2 0.000000 22.371 9.223 18.504
505 1 2 0.000000 19.989 0.547 8.901
506 1 2 0.000000 22.372 0.555 13.020
507 1 2 0.000000 19.998 0.558 17.143
508 1 2 0.000000 22.365 2.229 7.523
509 1 2 0.000000 19.990 2.232 11.646
510 1 2 0.000000 22.374 2.239 15.766
511 1 2 0.000000 20.000 2.242 19.889
512 1 2 0.000000 19.980 6.555 6.146
513 1 2 0.000000 22.364 6.562 10.264
514 1 2 0.000000 19.989 6.565 14.389
515 1 2 0.000000 22.373 6.573 18.507
516 1 2 0.000000 19.979 10.888 8.888
517 1 2 0.000000 22.363 10.896 13.007
518 1 2 0.000000 19.988 10.899 17.130
519 1 2 0.000000 22.359 8.724 7.514
520 1 2 0.000000 19.984 8.727 11.638
521 1 2 0.000000 22.368 8.734 15.757
522 1 2 0.000000 19.994 8.737 19.881
523 1 2 0.000000 19.974 13.051 6.138
524 1 2 0.000000 22.358 13.058 10.256
525 1 2 0.000000 19.983 13.061 14.381
526 1 2 0.000000 22.367 13.069 18.499
527 1 2 0.000000 19.985 4.393 8.897
528 1 2 0.000000 22.369 4.401 13.015
529 1 2 0.000000 19.994 4.404 17.139
530 1 2 0.000000 22.356 11.374 7.511
531 1 2 0.000000 19.982 11.377 11.635
532 1 2 0.000000 22.365 11.384 15.754
533 1 2 0.000000 19.991 11.387 19.878
534 1 2 0.000000 19.984 2.710 6.151
535 1 2 0.000000 22.367 2.717 10.269
536 1 2 0.000000 19.993 2.720 14.394
537 1 2 0.000000 22.377 2.728 18.512
538 1 2 0.000000 19.983 7.043 8.893
539 1 2 0.000000 22.366 7.051 13.011
540 1 2 0.000000 19.992 7.054 17.135
541 1 1 0.000000 26.396 3.559 8.777
542 1 1 0.000000 28.780 3.566 12.896
543 1 1 0.000000 26.405 3.569 17.020
544 1 1 0.000000 28.770 7.889 7.395
545 1 1 0.000000 26.395 7.892 11.520
546 1 1 0.000000 28.780 7.900 15.638
547 1 1 0.000000 26.404 7.903 19.762
548 1 1 0.000000 26.385 12.215 6.018
549 1 1 0.000000 28.769 12.223 10.138
550 1 1 0.000000 26.394 12.226 14.261
551 1 1 0.000000 28.779 12.233 18.381
552 1 1 0.000000 28.579 3.559 7.514
553 1 1 0.000000 26.204 3.562 11.638
554 1 1 0.000000 28.589 3.570 15.757
555 1 1 0.000000 26.213 3.573 19.881
556 1 1 0.000000 26.194 7.885 6.137
557 1 1 0.000000 28.578 7.893 10.255
558 1 1 0.000000 26.203 7.896 14.380
559 1 1 0.000000 28.588 7.903 18.498
560 1 1 0.000000 26.193 12.219 8.880
561 1 1 0.000000 28.578 12.226 12.998
562 1 1 0.000000 26.202 12.229 17.122
563 1 1 0.000000 26.393 3.556 6.255
564 1 1 0.000000 28.778 3.563 10.374
565 1 1 0.000000 26.402 3.566 14.498
566 1 1 0.000000 28.787 3.574 18.617
567 1 1 0.000000 26.392 7.889 8.997
568 1 1 0.000000 28.777 7.897 13.116
569 1 1 0.000000 26.401 7.900 17.240
570 1 1 0.000000 28.766 12.220 7.615
571 1 1 0.000000 26.391 12.223 11.739
572 1 1 0.000000 28.776 12.230 15.858
573 1 1 0.000000 27.844 10.052 6.245
574 1 1 0.000000 25.469 10.055 10.369
575 1 1 0.000000 27.853 10.063 14.488
576 1 1 0.000000 25.478 10.066 18.612
577 1 1 0.000000 27.855 1.396 9.003
578 1 1 0.000000 25.480 1.399 13.128
579 1 1 0.000000 27.864 1.406 17.246
580 1 1 0.000000 25.469 5.722 7.627
581 1 1 0.000000 27.854 5.729 11.746
582 1 1 0.000000 25.479 5.732 15.870
583 1 1 0.000000 25.660 10.052 7.509
584 1 1 0.000000 28.045 10.059 11.627
585 1 1 0.000000 25.670 10.062 15.752
586 1 1 0.000000 28.054 10.070 19.870
587 1 1 0.000000 28.047 1.392 6.143
588 1 1 0.000000 25.671 1.395 10.267
589 1 1 0.000000 28.056 1.403 14.386
590 1 1 0.000000 25.681 1.406 18.510
591 1 1 0.000000 28.046 5.726 8.886
592 1 1 0.000000 25.671 5.729 13.009
593 1 1 0.000000 28.055 5.736 17.128
594 1 1 0.000000 27.847 10.055 8.767
595 1 1 0.000000 25.471 10.058 12.891
596 1 1 0.000000 27.856 10.066 17.010
597 1 1 0.000000 25.473 1.391 7.407
598 1 1 0.000000 27.858 1.399 11.526
599 1 1 0.000000 25.483 1.402 15.650
600 1 1 0.000000 27.867 1.409 19.768
601 1 1 0.000000 27.848 5.722 6.025
602 1 1 0.000000 25.472 5.725 10.150
603 1 1 0.000000 27.857 5.732 14.268
604 1 1 0.000000 25.482 5.735 18.393
605 1 2 0.000000 27.121 4.883 7.514
606 1 2 0.000000 24.747 4.886 11.638
607 1 2 0.000000 27.130 4.893 15.757
608 1 2 0.000000 24.756 4.897 19.881
609 1 2 0.000000 24.737 9.209 6.137
610 1 2 0.000000 27.120 9.216 10.255
611 1 2 0.000000 24.746 9.220 14.380
612 1 2 0.000000 27.130 9.227 18.498
613 1 2 0.000000 24.748 0.552 8.896
614 1 2 0.000000 27.131 0.559 13.014
615 1 2 0.000000 24.757 0.562 17.138
616 1 2 0.000000 27.124 2.233 7.517
617 1 2 0.000000 24.749 2.236 11.641
618 1 2 0.000000 27.133 2.243 15.760
619 1 2 0.000000 24.759 2.247 19.884
620 1 2 0.000000 24.739 6.559 6.140
621 1 2 0.000000 27.123 6.566 10.259
622 1 2 0.000000 24.748 6.570 14.383
623 1 2 0.000000 27.132 6.577 18.502
624 1 2 0.000000 24.738 10.893 8.883
625 1 2 0.000000 27.122 10.900 13.001
626 1 2 0.000000 24.747 10.903 17.125
627 1 2 0.000000 27.118 8.728 7.509
628 1 2 0.000000 24.743 8.731 11.633
629 1 2 0.000000 27.127 8.738 15.752
630 1 2 0.000000 24.753 8.742 19.876
631 1 2 0.000000 24.733 13.055 6.132
632 1 2 0.000000 27.117 13.062 10.250
633 1 2 0.000000 24.742 13.066 14.375
634 1 2 0.000000 27.126 13.073 18.493
635 1 2 0.000000 24.744 4.398 8.891
636 1 2 0.000000 27.128 4.405 13.009
637 1 2 0.000000 24.753 4.408 17.133
638 1 2 0.000000 27.115 11.378 7.506
639 1 2 0.000000 24.741 11.381 11.629
640 1 2 0.000000 27.124 11.388 15.749
641 1 2 0.000000 24.750 11.392 19.872
642 1 2 0.000000 24.743 2.714 6.145
643 1 2 0.000000 27.126 2.721 10.264
644 1 2 0.000000 24.752 2.725 14.388
645 1 2 0.000000 27.136 2.732 18.507
646 1 2 0.000000 24.742 7.048 8.888
647 1 2 0.000000 27.125 7.055 13.006
648 1 2 0.000000 24.751 7.058 17.130
649 1 1 0.000000 31.155 3.563 8.772
650 1 1 0.000000 33.539 3.571 12.890
651 1 1 0.000000 31.164 3.574 17.015
652 1 1 0.000000 33.529 7.894 7.390
653 1 1 0.000000 31.154 7.897 11.514
654 1 1 0.000000 33.539 7.904 15.633
655 1 1 0.000000 31.163 7.907 19.756
656 1 1 0.000000 31.144 12.220 6.013
657 1 1 0.000000 33.528 12.227 10.132
658 1 1 0.000000 31.153 12.230 14.256
659 1 1 0.000000 33.538 12.238 18.375
660 1 1 0.000000 33.338 3.564 7.508
661 1 1 0.000000 30.963 3.567 11.632
662 1 1 0.000000 33.348 3.574 15.751
663 1 1 0.000000 30.972 3.577 19.875
664 1 1 0.000000 30.953 7.890 6.132
665 1 1 0.000000 33.337 7.897 10.250
666 1 1 0.000000 30.962 7.900 14.375
667 1 1 0.000000 33.347 7.908 18.493
668 1 1 0.000000 30.952 12.223 8.874
669 1 1 0.000000 33.337 12.231 12.992
670 1 1 0.000000 30.961 12.234 17.116
671 1 1 0.000000 31.152 3.560 6.250
672 1 1 0.000000 33.537 3.568 10.368
673 1 1 0.000000 31.161 3.571 14.493
674 1 1 0.000000 33.546 3.578 18.611
675 1 1 0.000000 31.151 7.894 8.991
676 1 1 0.000000 33.536 7.901 13.111
677 1 1 0.000000 31.160 7.904 17.234
678 1 1 0.000000 33.525 12.224 7.609
679 1 1 0.000000 31.150 12.227 11.734
680 1 1 0.000000 33.535 12.235 15.852
681 1 1 0.000000 32.603 10.056 6.240
682 1 1 0.000000 30.228 10.060 10.364
683 1 1 0.000000 32.612 10.067 14.483
684 1 1 0.000000 30.237 10.070 18.607
685 1 1 0.000000 32.614 1.400 8.998
686 1 1 0.000000 30.239 1.403 13.123
687 1 1 0.000000 32.623 1.410 17.241
688 1 1 0.000000 30.228 5.726 7.621
689 1 1 0.000000 32.613 5.733 11.741
690 1 1 0.000000 30.238 5.737 15.864
691 1 1 0.000000 30.419 10.056 7.504
692 1 1 0.000000 32.804 10.064 11.622
693 1 1 0.000000 30.429 10.067 15.747
694 1 1 0.000000 32.813 10.074 19.865
695 1 1 0.000000 32.806 1.397 6.138
696 1 1 0.000000 30.430 1.400 10.262
697 1 1 0.000000 32.815 1.407 14.381
698 1 1 0.000000 30.440 1.410 18.505
699 1 1 0.000000 32.805 5.730 8.880
700 1 1 0.000000 30.430 5.733 13.004
701 1 1 0.000000 32.814 5.741 17.122
702 1 1 0.000000 32.606 10.060 8.762
703 1 1 0.000000 30.230 10.063 12.886
704 1 1 0.000000 32.615 10.070 17.005
705 1 1 0.000000 30.232 1.396 7.402
706 1 1 0.000000 32.617 1.403 11.521
707 1 1 0.000000 30.242 1.406 15.645
708 1 1 0.000000 32.626 1.414 19.763
709 1 1 0.000000 32.607 5.726 6.020
710 1 1 0.000000 30.231 5.729 10.144
711 1 1 0.000000 32.616 5.737 14.263
712 1 1 0.000000 30.241 5.740 18.387
713 1 2 0.000000 31.880 4.887 7.508
714 1 2 0.000000 29.506 4.890 11.632
715 1 2 0.000000 31.889 4.898 15.751
716 1 2 0.000000 29.515 4.901 19.875
717 1 2 0.000000 29.496 9.213 6.132
718 1 2 0.000000 31.879 9.221 10.250
719 1 2 0.000000 29.505 9.224 14.375
720 1 2 0.000000 31.889 9.231 18.493
721 1 2 0.000000 29.507 0.556 8.891
722 1 2 0.000000 31.890 0.563 13.009
723 1 2 0.000000 29.516 0.566 17.133
724 1 2 0.000000 31.883 2.237 7.512
725 1 2 0.000000 29.508 2.240 11.636
726 1 2 0.000000 31.892 2.248 15.755
727 1 2 0.000000 29.518 2.251 19.878
728 1 2 0.000000 29.498 6.563 6.135
729 1 2 0.000000 31.882 6.571 10.253
730 1 2 0.000000 29.507 6.574 14.378
731 1 2 0.000000 31.891 6.581 18.496
732 1 2 0.000000 29.497 10.897 8.877
733 1 2 0.000000 31.881 10.904 12.996
734 1 2 0.000000 29.506 10.907 17.119
735 1 2 0.000000 31.877 8.732 7.504
736 1 2 0.000000 29.502 8.735 11.627
737 1 2 0.000000 31.886 8.743 15.747
738 1 2 0.000000 29.512 8.746 19.870
739 1 2 0.000000 29.492 13.059 6.127
740 1 2 0.000000 31.876 13.067 10.245
741 1 2 0.000000 29.501 13.070 14.370
742 1 2 0.000000 31.885 13.077 18.488
743 1 2 0.000000 29.503 4.402 8.886
744 1 2 0.000000 31.887 4.409 13.004
745 1 2 0.000000 29.512 4.412 17.128
746 1 2 0.000000 31.874 11.382 7.500
747 1 2 0.000000 29.500 11.385 11.624
748 1 2 0.000000 31.883 11.393 15.743
749 1 2 0.000000 29.509 11.396 19.867
750 1 2 0.000000 29.502 2.718 6.140
751 1 2 0.000000 31.885 2.726 10.258
752 1 2 0.000000 29.511 2.729 14.383
753 1 2 0.000000 31.895 2.736 18.501
754 1 2 0.000000 29.501 7.052 8.882
755 1 2 0.000000 31.884 7.059 13.001
756 1 2 0.000000 29.510 7.062 17.124
757 1 1 0.000000 35.914 3.568 8.767
758 1 1 0.000000 38.298 3.575 12.885
759 1 1 0.000000 35.923 3.578 17.010
760 1 1 0.000000 38.288 7.898 7.384
761 1 1 0.000000 35.913 7.901 11.509
762 1 1 0.000000 38.298 7.909 15.627
763 1 1 0.000000 35.922 7.912 19.751
764 1 1 0.000000 35.903 12.224 6.008
765 1 1 0.000000 38.287 12.232 10.127
766 1 1 0.000000 35.912 12.235 14.251
767 1 1 0.000000 38.297 12.242 18.370
768 1 1 0.000000 38.097 3.568 7.503
769 1 1 0.000000 35.722 3.571 11.627
770 1 1 0.000000 38.107 3.579 15.746
771 1 1 0.000000 35.731 3.582 19.870
772 1 1 0.000000 35.712 7.894 6.126
773 1 1 0.000000 38.096 7.902 10.245
774 1 1 0.000000 35.721 7.905 14.369
775 1 1 0.000000 38.106 7.912 18.488
776 1 1 0.000000 35.711 12.228 8.869
777 1 1 0.000000 38.096 12.235 12.987
778 1 1 0.000000 35.720 12.238 17.111
779 1 1 0.000000 35.911 3.565 6.245
780 1 1 0.000000 38.296 3.572 10.363
781 1 1 0.000000 35.920 3.575 14.488
782 1 1 0.000000 38.305 3.582 18.606
783 1 1 0.000000 35.910 7.898 8.986
784 1 1 0.000000 38.295 7.905 13.105
785 1 1 0.000000 35.919 7.909 17.229
786 1 1 0.000000 38.284 12.228 7.604
787 1 1 0.000000 35.909 12.232 11.729
788 1 1 0.000000 38.294 12.239 15.847
789 1 1 0.000000 37.362 10.061 6.235
790 1 1 0.000000 34.987 10.064 10.358
791 1 1 0.000000 37.371 10.071 14.478
792 1 1 0.000000 34.996 10.074 18.601
793 1 1 0.000000 37.373 1.404 8.993
794 1 1 0.000000 34.998 1.407 13.117
795 1 1 0.000000 37.382 1.415 17.236
796 1 1 0.000000 34.987 5.730 7.616
797 1 1 0.000000 37.372 5.738 11.735
798 1 1 0.000000 34.997 5.741 15.859
799 1 1 0.000000 35.178 10.060 7.498
800 1 1 0.000000 37.563 10.068 11.616
801 1 1 0.000000 35.188 10.071 15.741
802 1 1 0.000000 37.572 10.078 19.859
803 1 1 0.000000 37.565 1.401 6.132